6   6
1   1
8.073122009603249660e-01 -2.072892493870312144e-02 3.101906779800905900e-02
-2.034919472937185905e-02 4.440151996103889886e-01 2.273336457480779893e-01
3.015389083384888147e-02 2.251784492820460004e-01 2.707653482937499856e-01
1   2
-1.177467370974280003e-01 -9.501991895095371343e-02 -7.074955167217703011e-02
-9.124395366835362509e-02 -1.764677844127849893e-01 -1.025842391758519934e-01
-6.726631159091642220e-02 -1.019765277088010014e-01 -1.120083214802889970e-01
1   3
-1.187306190938860057e-01 1.007603139533810033e-01 6.366595927323656645e-02
9.709743687830293957e-02 -1.878408475784169862e-01 -9.829890030350721397e-02
6.026455805508741659e-02 -9.665065639352392324e-02 -1.002447764047569995e-01
1   4
-5.454081976442100022e-01 1.390510377037883043e-02 -2.230392115711756981e-02
1.329601382576161075e-02 -8.507244832473927210e-02 -2.371718141148563067e-02
-2.133942419608643101e-02 -2.372831844636543938e-02 -6.638229510937447564e-02
1   5
-1.279909452575899061e-02 -1.550161025345825902e-03 -2.274239299723270890e-03
2.372969670536553832e-02 2.107278771283434011e-03 -3.174238097381566260e-04
1.511817121357850006e-02 -1.938262896817157053e-03 4.592433449520686231e-03
1   6
-1.262755259904261955e-02 2.633587191242802144e-03 6.426850577722468833e-04
-2.252999901170460104e-02 3.258601934268507902e-03 -2.415901047494555844e-03
-1.693088431551193970e-02 -8.846838365376456185e-04 3.277611251149485910e-03
2   1
-1.208009367243540050e-01 -9.187845729465696221e-02 -6.834960635880153734e-02
-9.692849505334813487e-02 -1.783098956289370096e-01 -1.032858856988760066e-01
-7.134122569341730391e-02 -1.020959127784649978e-01 -1.136629977534100028e-01
2   2
1.301831193297849909e-01 1.037379180026059972e-01 7.792209575847661163e-02
1.038329146047899942e-01 1.805740304618800030e-01 1.125446079506250002e-01
7.737283057669805397e-02 1.116913319629229961e-01 1.086332726499159990e-01
2   3
7.078567114319031690e-03 1.039649534151237953e-02 7.534153365415102721e-03
-1.067244866031935926e-02 -8.863656364720202963e-03 -8.086113388235406305e-03
-7.065100618747553567e-03 -6.746257837558933095e-03 -2.899382797532254041e-03
2   4
-1.509672409548201005e-02 -2.271793915198217981e-02 -1.707481905844153089e-02
2.550261906340894110e-03 3.587309868556330054e-03 -9.199630787408705820e-04
5.448974190263780734e-04 -2.520217867334621168e-03 3.806751133945060050e-03
2   5
2.068999919956765032e-03 -6.838185135250677291e-04 1.456841698738740106e-04
6.346655722135372641e-05 -1.838652381216377991e-03 4.624870673445670433e-03
6.587177334094376346e-04 4.537487618890454280e-03 -4.885890819440309382e-03
2   6
-3.433025544224799046e-03 1.145801616045700024e-03 -1.775078765225266049e-04
1.154300645315052077e-03 4.850864044436881996e-03 -4.877516458218522297e-03
-1.701194169690148871e-04 -4.866431098454579614e-03 9.008247586520952074e-03
3   1
-1.219198728864099995e-01 9.752292492766104215e-02 6.158640318112325318e-02
1.026704491389430068e-01 -1.894382116045900122e-01 -9.813432831448531957e-02
6.429041046940008053e-02 -9.749871019514400050e-02 -1.021065081620800008e-01
3   2
7.060454563700663266e-03 -1.066511960918309007e-02 -7.033486310613679994e-03
1.045241888686100976e-02 -8.614288666875406786e-03 -6.738538426724881639e-03
7.564442009896638411e-03 -8.063819772174268818e-03 -3.207371679428239891e-03
3   3
1.315307224829179999e-01 -1.105568884869879975e-01 -6.930214047462231186e-02
-1.106921280000180002e-01 1.917698600309709900e-01 1.072050734546709932e-01
-6.865628342680166196e-02 1.061886244888780029e-01 9.710103831666355712e-02
3   4
-1.526895265864179965e-02 2.390045687143331141e-02 1.522117081780969064e-02
-1.543669512655660011e-03 2.684730526989617932e-03 -1.983970013847243929e-03
-2.202143512282770180e-03 -3.678114164144354915e-04 4.800485342993478406e-03
3   5
-3.452515457626599994e-03 -2.842424995489892855e-04 -1.156172294612616003e-03
-2.613160444671447998e-04 5.181765443100472615e-03 -4.918480989279551754e-03
-1.162213242624671053e-03 -4.892413302329937964e-03 8.606837013013894644e-03
3   6
2.050163956059601958e-03 8.286879662581466451e-05 6.842250809156588329e-04
-6.257544686626417482e-04 -1.583855729595779090e-03 4.570244289665740395e-03
1.657877024123773980e-04 4.634130197184891005e-03 -5.194480831162659115e-03
4   1
-5.452963658116479762e-01 1.389052352390703071e-02 -2.230267193703859910e-02
1.331099144086327936e-02 -8.505987847706800165e-02 -2.370194879978948857e-02
-2.136757707850935051e-02 -2.374501953375288132e-02 -6.648437867579604088e-02
4   2
-1.263211847547419074e-02 2.634636438248049925e-03 6.427497806486364134e-04
-2.253271922032079946e-02 3.254489358587527893e-03 -2.417711421949142198e-03
-1.692095703117058036e-02 -8.767206882897716352e-04 3.290219609227863946e-03
4   3
-1.279874603244537945e-02 -1.545826343459983038e-03 -2.274731141162287043e-03
2.372501596533947016e-02 2.102196282948035847e-03 -3.175735859636158215e-04
1.511478639362046072e-02 -1.939092975241825997e-03 4.590709836362843674e-03
4   4
8.071455966374709856e-01 -2.087547157497415123e-02 3.094845231061543050e-02
-2.049751464133127074e-02 4.439825351014010102e-01 2.272977445269590002e-01
3.010773473817477883e-02 2.252309602954840062e-01 2.710064817163819750e-01
4   5
-1.187204064801120063e-01 1.008393078522819980e-01 6.368735458869458077e-02
9.717231547592300456e-02 -1.879206476942069937e-01 -9.834729177043632919e-02
6.030945415842672158e-02 -9.674190920639949565e-02 -1.003308585318929969e-01
4   6
-1.176979598377909941e-01 -9.494316989600318224e-02 -7.070115360175777131e-02
-9.117808902047369601e-02 -1.763586945716610066e-01 -1.025132189488199980e-01
-6.724344118054204067e-02 -1.019282178917989973e-01 -1.120721739542839962e-01
5   1
-1.526468397333510980e-02 2.388121165558905121e-02 1.520682751179320939e-02
-1.527743391557297896e-03 2.672950420119900999e-03 -1.985688877345009786e-03
-2.199960863359550888e-03 -3.606792443418225798e-04 4.812586703952540131e-03
5   2
2.055448767957707059e-03 9.572779176694230655e-05 6.952542609192505826e-04
-6.187828851508971441e-04 -1.575650174540323004e-03 4.574520693057811116e-03
1.609523612764065094e-04 4.629161196487257580e-03 -5.206231564436581208e-03
5   3
-3.447812147513332030e-03 -2.856674026403599920e-04 -1.159120930231548070e-03
-2.635416850079471784e-04 5.178981600937821242e-03 -4.912526664303979405e-03
-1.158325477229667005e-03 -4.895655075733309873e-03 8.598344177244726660e-03
5   4
-1.220957526687610067e-01 9.767658410742174890e-02 6.166634750623033179e-02
1.026597644799610021e-01 -1.893040632346799923e-01 -9.815816038603650262e-02
6.434418426044052897e-02 -9.761345438213817061e-02 -1.022542435652139953e-01
5   5
1.316998326431829958e-01 -1.106855698178429992e-01 -6.936438067862968349e-02
-1.107103433520290059e-01 1.916538999697040002e-01 1.072185172367449979e-01
-6.871390656191880830e-02 1.062860558356879953e-01 9.725435029875728610e-02
5   6
7.052967378469231045e-03 -1.068228633429441944e-02 -7.044927670081575603e-03
1.046064683378387060e-02 -8.626118581541306757e-03 -6.736662002117724431e-03
7.567056280791075243e-03 -8.045428329962042366e-03 -3.204806050304354146e-03
6   1
-1.505618944485961029e-02 -2.268649449551164016e-02 -1.705080688935967093e-02
2.567590174727105851e-03 3.591078322223824164e-03 -9.201372758269899541e-04
5.509094139873646056e-04 -2.510674410390731012e-03 3.799182709401409917e-03
6   2
-3.435977370061011130e-03 1.149915859189099042e-03 -1.751147933391707014e-04
1.154165943623740092e-03 4.853337430350387373e-03 -4.873401411934511103e-03
-1.793503268816195055e-04 -4.884192944858258348e-03 8.999910142560166651e-03
6   3
2.073507117230611110e-03 -6.970765723493473108e-04 1.369230320606635892e-04
5.788373909756827792e-05 -1.828113613528971034e-03 4.627585785825302431e-03
6.472745123230563575e-04 4.549838346971622066e-03 -4.876940881569025860e-03
6   4
-1.210245254953900007e-01 -9.193032325067546084e-02 -6.839469957644278564e-02
-9.680469707257641221e-02 -1.780065769466570025e-01 -1.031583794516449937e-01
-7.131570397949923978e-02 -1.020792829911520011e-01 -1.137483042491539975e-01
6   5
7.075312768353858237e-03 1.040276047233423991e-02 7.539263056905042351e-03
-1.068205529229724997e-02 -8.874010981884217913e-03 -8.092893399433722518e-03
-7.071364157924180799e-03 -6.736645725451982647e-03 -2.884996593515150136e-03
6   6
1.303678724247260001e-01 1.037612179870130019e-01 7.794443517017592138e-02
1.037071125074249950e-01 1.802642857894959927e-01 1.124172257530149932e-01
7.736823453799461514e-02 1.116609577248809937e-01 1.087111488722759950e-01
